
60 atoms
1 atom types

-2.1 2.1 xlo xhi
-2.1 2.1 ylo yhi
0 2.55790000000 zlo zhi

Atoms

1 1 1 1 0.0000000000 0.0000000000 0.0000000000
2 1 1 1 0.9010066786 -0.6310205743 0
3 1 1 1 -0.9010066786 -0.6310205743 0
4 1 1 1 0 0.8470061967 1.2789591482
5 1 1 1 0.9010066786 1.478026771 1.2789591482
6 1 1 1 -0.9010066786 1.478026771 1.2789591482
7 1 1 1 0 0 2.5579182965
8 1 1 1 0.9010066786 -0.6310205743 2.5579182965
9 1 1 1 -0.9010066786 -0.6310205743 2.5579182965
10 1 1 1 0 0.8470061967 3.8368774447
11 1 1 1 0.9010066786 1.478026771 3.8368774447
12 1 1 1 -0.9010066786 1.478026771 3.8368774447
13 1 1 1 0 0 5.1158365929
14 1 1 1 0.9010066786 -0.6310205743 5.1158365929
15 1 1 1 -0.9010066786 -0.6310205743 5.1158365929
16 1 1 1 0 0.8470061967 6.3947957411
17 1 1 1 0.9010066786 1.478026771 6.3947957411
18 1 1 1 -0.9010066786 1.478026771 6.3947957411
19 1 1 1 0 0 7.6737548894
20 1 1 1 0.9010066786 -0.6310205743 7.6737548894
21 1 1 1 -0.9010066786 -0.6310205743 7.6737548894
22 1 1 1 0 0.8470061967 8.9527140376
23 1 1 1 0.9010066786 1.478026771 8.9527140376
24 1 1 1 -0.9010066786 1.478026771 8.9527140376
25 1 1 1 0 0 10.2316731858
26 1 1 1 0.9010066786 -0.6310205743 10.2316731858
27 1 1 1 -0.9010066786 -0.6310205743 10.2316731858
28 1 1 1 0 0.8470061967 11.510632334
29 1 1 1 0.9010066786 1.478026771 11.510632334
30 1 1 1 -0.9010066786 1.478026771 11.510632334
31 1 1 1 0 0 12.7895914823
32 1 1 1 0.9010066786 -0.6310205743 12.7895914823
33 1 1 1 -0.9010066786 -0.6310205743 12.7895914823
34 1 1 1 0 0.8470061967 14.0685506305
35 1 1 1 0.9010066786 1.478026771 14.0685506305
36 1 1 1 -0.9010066786 1.478026771 14.0685506305
37 1 1 1 0 0 15.3475097787
38 1 1 1 0.9010066786 -0.6310205743 15.3475097787
39 1 1 1 -0.9010066786 -0.6310205743 15.3475097787
40 1 1 1 0 0.8470061967 16.6264689269
41 1 1 1 0.9010066786 1.478026771 16.6264689269
42 1 1 1 -0.9010066786 1.478026771 16.6264689269
43 1 1 1 0 0 17.9054280752
44 1 1 1 0.9010066786 -0.6310205743 17.9054280752
45 1 1 1 -0.9010066786 -0.6310205743 17.9054280752
46 1 1 1 0 0.8470061967 19.1843872234
47 1 1 1 0.9010066786 1.478026771 19.1843872234
48 1 1 1 -0.9010066786 1.478026771 19.1843872234
49 1 1 1 0 0 20.4633463716
50 1 1 1 0.9010066786 -0.6310205743 20.4633463716
51 1 1 1 -0.9010066786 -0.6310205743 20.4633463716
52 1 1 1 0 0.8470061967 21.7423055198
53 1 1 1 0.9010066786 1.478026771 21.7423055198
54 1 1 1 -0.9010066786 1.478026771 21.7423055198
55 1 1 1 0 0 23.0212646681
56 1 1 1 0.9010066786 -0.6310205743 23.0212646681
57 1 1 1 -0.9010066786 -0.6310205743 23.0212646681
58 1 1 1 0 0.8470061967 24.3002238163
59 1 1 1 0.9010066786 1.478026771 24.3002238163
60 1 1 1 -0.9010066786 1.478026771 24.3002238163

Normals

1 4.7962 4.1504 -9.5281 
2 -0.848 2.9245 7.4874 
3 3.2475 -5.2429 -1.8083 
4 -5.8431 -1.1989 -7.6092 
5 -9.517 -4.5679 1.0869 
6 5.5915 -4.0284 -8.5658 
7 1.3965 7.9522 -0.0572 
8 1.2133 -6.5327 -4.5952 
9 -4.7797 -5.3572 4.2855 
10 -2.8086 2.3059 3.7651 
11 -8.8694 9.0085 -0.9469 
12 6.5085 -9.2532 -3.8173 
13 -8.2816 -0.9001 -1.8323 
14 7.5147 8.3489 -6.2095 
15 7.2864 5.0593 -1.5225 
16 7.3353 4.6837 -2.2713 
17 2.6576 -5.0789 1.6267 
18 7.8821 3.3892 7.4237 
19 -9.3334 -3.217 -0.9721 
20 7.7886 -8.7895 -2.1504 
21 8.1759 -7.6076 -2.9174 
22 9.2627 7.2786 9.9398 
23 -0.1449 -9.4586 -4.6596 
24 8.7774 2.4209 7.2484 
25 5.8704 -5.67 1.7178 
26 -9.8588 3.0264 -8.8493 
27 -9.5372 -5.9491 2.9057 
28 4.7665 -8.7373 -8.999 
29 -4.9844 -4.5556 -3.3154 
30 3.1213 4.8713 -7.286 
31 6.1214 1.4677 8.9016 
32 1.0959 7.2327 0.9169 
33 -2.4744 -3.1573 -7.0271 
34 -4.5298 -6.2717 -6.2851 
35 9.2114 0.162 -5.967 
36 -2.7487 -9.3976 -6.7729 
37 8.2442 5.3204 4.2504 
38 9.5573 -9.1368 -1.9719 
39 -5.2232 -9.2226 -2.3963 
40 -0.4109 -9.3734 4.6049 
41 6.9199 -8.1342 0.488 
42 3.3296 5.7064 -5.5259 
43 3.7505 2.9091 -4.4362 
44 -0.654 -0.8966 1.1916 
45 0.9891 -3.5455 -9.504 
46 -0.1899 -2.4701 -5.7241 
47 -2.4195 -3.7041 -6.658 
48 3.7225 -2.9047 9.8045 
49 7.9076 -8.6906 -6.5329 
50 -8.6015 8.9091 6.8814
51 -3.2878 6.5296 6.233 
52 -3.5176 -9.4142 -7.4069 
53 -2.6918 -0.8281 7.5395 
54 7.5329 -3.6756 0.6786 
55 0.712 6.214 -8.5591 
56 0.0943 -0.4148 -3.6191 
57 2.5005 -4.1047 9.6528 
58 3.3958 -4.0788 -6.9483 
59 2.2272 3.0848 0.1492 
60 9.0842 -7.4549 -8.7789