ITEM: TIMESTEP
0
ITEM: NUMBER OF ATOMS
60
ITEM: BOX BOUNDS pp pp pp
-2.1000000000000001e+00 2.1000000000000001e+00
-2.1000000000000001e+00 2.1000000000000001e+00
0.0000000000000000e+00 2.5579000000000001e+00
ITEM: ATOMS id d_normalX d_normalY d_normalZ
1 4.7962 4.1504 -9.5281
2 -0.848 2.9245 7.4874
3 3.2475 -5.2429 -1.8083
4 -5.8431 -1.1989 -7.6092
5 -9.517 -4.5679 1.0869
6 5.5915 -4.0284 -8.5658
7 1.3965 7.9522 -0.0572
8 1.2133 -6.5327 -4.5952
9 -4.7797 -5.3572 4.2855
10 -2.8086 2.3059 3.7651
11 -8.8694 9.0085 -0.9469
12 6.5085 -9.2532 -3.8173
13 -8.2816 -0.9001 -1.8323
14 7.5147 8.3489 -6.2095
15 7.2864 5.0593 -1.5225
16 7.3353 4.6837 -2.2713
17 2.6576 -5.0789 1.6267
18 7.8821 3.3892 7.4237
19 -9.3334 -3.217 -0.9721
20 7.7886 -8.7895 -2.1504
21 8.1759 -7.6076 -2.9174
22 9.2627 7.2786 9.9398
23 -0.1449 -9.4586 -4.6596
24 8.7774 2.4209 7.2484
25 5.8704 -5.67 1.7178
26 -9.8588 3.0264 -8.8493
27 -9.5372 -5.9491 2.9057
28 4.7665 -8.7373 -8.999
29 -4.9844 -4.5556 -3.3154
30 3.1213 4.8713 -7.286
31 6.1214 1.4677 8.9016
32 1.0959 7.2327 0.9169
33 -2.4744 -3.1573 -7.0271
34 -4.5298 -6.2717 -6.2851
35 9.2114 0.162 -5.967
36 -2.7487 -9.3976 -6.7729
37 8.2442 5.3204 4.2504
38 9.5573 -9.1368 -1.9719
39 -5.2232 -9.2226 -2.3963
40 -0.4109 -9.3734 4.6049
41 6.9199 -8.1342 0.488
42 3.3296 5.7064 -5.5259
43 3.7505 2.9091 -4.4362
44 -0.654 -0.8966 1.1916
45 0.9891 -3.5455 -9.504
46 -0.1899 -2.4701 -5.7241
47 -2.4195 -3.7041 -6.658
48 3.7225 -2.9047 9.8045
49 7.9076 -8.6906 -6.5329
50 -8.6015 8.9091 6.8814
51 -3.2878 6.5296 6.233
52 -3.5176 -9.4142 -7.4069
53 -2.6918 -0.8281 7.5395
54 7.5329 -3.6756 0.6786
55 0.712 6.214 -8.5591
56 0.0943 -0.4148 -3.6191
57 2.5005 -4.1047 9.6528
58 3.3958 -4.0788 -6.9483
59 2.2272 3.0848 0.1492
60 9.0842 -7.4549 -8.7789
ITEM: TIMESTEP
10
ITEM: NUMBER OF ATOMS
60
ITEM: BOX BOUNDS pp pp pp
-2.1000000000000001e+00 2.1000000000000001e+00
-2.1000000000000001e+00 2.1000000000000001e+00
0.0000000000000000e+00 2.5579000000000001e+00
ITEM: ATOMS id d_normalX d_normalY d_normalZ
1 4.7962 4.1504 -9.5281
2 -0.848 2.9245 7.4874
3 3.2475 -5.2429 -1.8083
4 -5.8431 -1.1989 -7.6092
5 -9.517 -4.5679 1.0869
6 5.5915 -4.0284 -8.5658
7 1.3965 7.9522 -0.0572
8 1.2133 -6.5327 -4.5952
9 -4.7797 -5.3572 4.2855
10 -2.8086 2.3059 3.7651
11 -8.8694 9.0085 -0.9469
12 6.5085 -9.2532 -3.8173
13 -8.2816 -0.9001 -1.8323
14 7.5147 8.3489 -6.2095
15 7.2864 5.0593 -1.5225
16 7.3353 4.6837 -2.2713
17 2.6576 -5.0789 1.6267
18 7.8821 3.3892 7.4237
19 -9.3334 -3.217 -0.9721
20 7.7886 -8.7895 -2.1504
21 8.1759 -7.6076 -2.9174
22 9.2627 7.2786 9.9398
23 -0.1449 -9.4586 -4.6596
24 8.7774 2.4209 7.2484
25 5.8704 -5.67 1.7178
26 -9.8588 3.0264 -8.8493
27 -9.5372 -5.9491 2.9057
28 4.7665 -8.7373 -8.999
29 -4.9844 -4.5556 -3.3154
30 3.1213 4.8713 -7.286
31 6.1214 1.4677 8.9016
32 1.0959 7.2327 0.9169
33 -2.4744 -3.1573 -7.0271
34 -4.5298 -6.2717 -6.2851
35 9.2114 0.162 -5.967
36 -2.7487 -9.3976 -6.7729
37 8.2442 5.3204 4.2504
38 9.5573 -9.1368 -1.9719
39 -5.2232 -9.2226 -2.3963
40 -0.4109 -9.3734 4.6049
41 6.9199 -8.1342 0.488
42 3.3296 5.7064 -5.5259
43 3.7505 2.9091 -4.4362
44 -0.654 -0.8966 1.1916
45 0.9891 -3.5455 -9.504
46 -0.1899 -2.4701 -5.7241
47 -2.4195 -3.7041 -6.658
48 3.7225 -2.9047 9.8045
49 7.9076 -8.6906 -6.5329
50 -8.6015 8.9091 6.8814
51 -3.2878 6.5296 6.233
52 -3.5176 -9.4142 -7.4069
53 -2.6918 -0.8281 7.5395
54 7.5329 -3.6756 0.6786
55 0.712 6.214 -8.5591
56 0.0943 -0.4148 -3.6191
57 2.5005 -4.1047 9.6528
58 3.3958 -4.0788 -6.9483
59 2.2272 3.0848 0.1492
60 9.0842 -7.4549 -8.7789
