ITEM: TIMESTEP
0
ITEM: NUMBER OF ATOMS
60
ITEM: BOX BOUNDS pp pp pp
-2.1000000000000001e+00 2.1000000000000001e+00
-2.1000000000000001e+00 2.1000000000000001e+00
0.0000000000000000e+00 2.5579000000000001e+00
ITEM: ATOMS id fx fy fz
1 -42.6904 15122.5 -1.37952e+06
2 7831.01 -5146.76 -1.37952e+06
3 -7805.53 -5147.31 -1.37952e+06
4 217.457 -14928.1 -1.37952e+06
5 6959.64 4788.16 -1.37952e+06
6 -7343.65 4822.38 -1.37952e+06
7 -24.9586 15091 -1.07296e+06
8 7763.14 -4838.11 -1.07296e+06
9 -7560.19 -4821.22 -1.07296e+06
10 151.644 -15056 -1.07296e+06
11 7778.7 5187.38 -1.07296e+06
12 -7065.01 4023.33 -1.07296e+06
13 42.8674 15112.6 -766399
14 7577.82 -5353.59 -766399
15 -7195.03 -4596.27 -766399
16 -440.077 -15062.2 -766399
17 7714.14 5207.3 -766399
18 -7310.58 5418.64 -766399
19 -18.0542 15082.3 -459839
20 7108.42 -4440.1 -459839
21 -7448.56 -5250.74 -459839
22 -666.916 -15293.8 -459840
23 7660.5 4799.15 -459839
24 -7185.79 5371.6 -459839
25 8.7028 15121.5 -153280
26 7359.64 -5035.78 -153280
27 -7101.7 -4756.35 -153280
28 -107.678 -15082.4 -153280
29 7524.21 4907.06 -153280
30 -7695.4 5207.66 -153280
31 -63.4483 15131.8 153280
32 7631.82 -5084.6 153280
33 -7595 -5016.56 153280
34 -7.05878 -14984.7 153280
35 7127.96 5047.47 153280
36 -7730.86 4893.57 153280
37 -48.6985 15167.3 459840
38 7095.31 -4705.66 459839
39 -7448.02 -4727.66 459839
40 -13.8185 -15126.3 459839
41 7485.68 5067.19 459839
42 -7673.71 5098.83 459839
43 21.3176 15004.1 766399
44 7598.41 -5139.14 766399
45 -7521.48 -4976.71 766399
46 2.01988 -14933.3 766399
47 7623.03 4914.67 766399
48 -7583.01 4943.87 766399
49 -10.1087 15164.7 1.07296e+06
50 7622.38 -5142.14 1.07296e+06
51 -7435.75 -5039.05 1.07296e+06
52 -40.529 -15182.7 1.07296e+06
53 7626.12 4872.8 1.07296e+06
54 -7490.71 4771.57 1.07296e+06
55 152.997 14923.7 1.37952e+06
56 7537.47 -5047.63 1.37952e+06
57 -7480.74 -4973.35 1.37952e+06
58 -50.3317 -15010.8 1.37952e+06
59 7468.3 4967.34 1.37952e+06
60 -7485.61 4667.51 1.37952e+06
ITEM: TIMESTEP
10
ITEM: NUMBER OF ATOMS
60
ITEM: BOX BOUNDS pp pp pp
-2.1000000000000001e+00 2.1000000000000001e+00
-2.1000000000000001e+00 2.1000000000000001e+00
0.0000000000000000e+00 2.5579000000000001e+00
ITEM: ATOMS id fx fy fz
1 -42.6904 15122.5 -1.37952e+06
2 7831.01 -5146.76 -1.37952e+06
3 -7805.53 -5147.31 -1.37952e+06
4 217.457 -14928.1 -1.37952e+06
5 6959.64 4788.16 -1.37952e+06
6 -7343.65 4822.38 -1.37952e+06
7 -24.9586 15091 -1.07296e+06
8 7763.14 -4838.11 -1.07296e+06
9 -7560.19 -4821.22 -1.07296e+06
10 151.644 -15056 -1.07296e+06
11 7778.7 5187.38 -1.07296e+06
12 -7065.01 4023.33 -1.07296e+06
13 42.8674 15112.6 -766399
14 7577.82 -5353.59 -766399
15 -7195.03 -4596.27 -766399
16 -440.077 -15062.2 -766399
17 7714.14 5207.3 -766399
18 -7310.58 5418.64 -766399
19 -18.0542 15082.3 -459839
20 7108.42 -4440.1 -459839
21 -7448.56 -5250.74 -459839
22 -666.916 -15293.8 -459840
23 7660.5 4799.15 -459839
24 -7185.79 5371.6 -459839
25 8.7028 15121.5 -153280
26 7359.64 -5035.78 -153280
27 -7101.7 -4756.35 -153280
28 -107.678 -15082.4 -153280
29 7524.21 4907.06 -153280
30 -7695.4 5207.66 -153280
31 -63.4483 15131.8 153280
32 7631.82 -5084.6 153280
33 -7595 -5016.56 153280
34 -7.05878 -14984.7 153280
35 7127.96 5047.47 153280
36 -7730.86 4893.57 153280
37 -48.6985 15167.3 459840
38 7095.31 -4705.66 459839
39 -7448.02 -4727.66 459839
40 -13.8185 -15126.3 459839
41 7485.68 5067.19 459839
42 -7673.71 5098.83 459839
43 21.3176 15004.1 766399
44 7598.41 -5139.14 766399
45 -7521.48 -4976.71 766399
46 2.01988 -14933.3 766399
47 7623.03 4914.67 766399
48 -7583.01 4943.87 766399
49 -10.1087 15164.7 1.07296e+06
50 7622.38 -5142.14 1.07296e+06
51 -7435.75 -5039.05 1.07296e+06
52 -40.529 -15182.7 1.07296e+06
53 7626.12 4872.8 1.07296e+06
54 -7490.71 4771.57 1.07296e+06
55 152.997 14923.7 1.37952e+06
56 7537.47 -5047.63 1.37952e+06
57 -7480.74 -4973.35 1.37952e+06
58 -50.3317 -15010.8 1.37952e+06
59 7468.3 4967.34 1.37952e+06
60 -7485.61 4667.51 1.37952e+06
