ITEM: TIMESTEP
0
ITEM: NUMBER OF ATOMS
60
ITEM: BOX BOUNDS pp pp pp
-2.1000000000000001e+00 2.1000000000000001e+00
-2.1000000000000001e+00 2.1000000000000001e+00
0.0000000000000000e+00 2.5579000000000001e+00
ITEM: ATOMS id tqx tqy tqz
1 -643.523 -239.953 -1511.69
2 -133.424 238.61 -29.3058
3 68.8933 62.5703 469.422
4 -666.62 -1153.51 1239.63
5 370.833 -563.004 1835.08
6 -419.854 -599.655 -489.57
7 -559.555 94.4338 -1492.63
8 307.476 -113.451 160.44
9 439.991 -49.3425 1548.49
10 166.088 25.7622 146.042
11 -631.267 -561.199 -442.428
12 322.769 7.37362 75.8002
13 -4.71043 -691.332 1632.25
14 -402.362 126.438 -1469.46
15 -263.384 207.113 -1828.31
16 -681.043 523.837 -2052.29
17 447.288 193.171 518.716
18 370.853 1389.87 -1972.9
19 189.536 -713.051 2183.3
20 416.836 290.726 -642.782
21 82.2814 200.572 223.984
22 324.587 1662.65 -2804.45
23 190.022 -95.6731 1551.53
24 422.824 1430.99 -2005.55
25 461.039 515.392 -172.542
26 -150.992 -799.159 1222.36
27 376.927 -247.063 2277.8
28 -88.5185 -247.677 505.009
29 1.94706 -367.222 1312.13
30 -924.416 -621.825 -1280.51
31 226.544 967.402 -1331.71
32 -343.671 86.3459 -517.848
33 -316.353 -268.924 867.399
34 -45.63 -924.415 1794.76
35 -508.902 453.372 -1085
36 92.7412 -964.316 1850.22
37 -215.664 834.955 -2315.38
38 433.515 381.598 -871.95
39 168.476 -240.28 2269.12
40 1369.05 320.664 1536.89
41 539.308 433.172 524.619
42 -838.645 -405.818 -1438.12
43 -368.113 -5.34761 -1129.6
44 43.6203 13.2598 136.465
45 -452.448 -216.627 476.756
46 -351.528 -465.593 419.708
47 -329.755 -272.291 879.16
48 994.385 1378.41 -294.407
49 367.448 159.283 -68.0896
50 -418.849 -153.157 750.128
51 154.093 52.537 -684.5
52 139.658 -915.31 2102.88
53 681.221 -24.5332 443.761
54 306.366 592.783 -907.323
55 -752.394 -467.674 -1098.05
56 16.93 -130.361 7.77986
57 720.958 338.935 373.056
58 -323.405 -218.433 24.8766
59 -176.573 139.271 -756.563
60 -202.896 -385.299 -666.621
ITEM: TIMESTEP
10
ITEM: NUMBER OF ATOMS
60
ITEM: BOX BOUNDS pp pp pp
-2.1000000000000001e+00 2.1000000000000001e+00
-2.1000000000000001e+00 2.1000000000000001e+00
0.0000000000000000e+00 2.5579000000000001e+00
ITEM: ATOMS id tqx tqy tqz
1 -643.523 -239.953 -1511.69
2 -133.424 238.61 -29.3058
3 68.8933 62.5703 469.422
4 -666.62 -1153.51 1239.63
5 370.833 -563.004 1835.08
6 -419.854 -599.655 -489.57
7 -559.555 94.4338 -1492.63
8 307.476 -113.451 160.44
9 439.991 -49.3425 1548.49
10 166.088 25.7622 146.042
11 -631.267 -561.199 -442.428
12 322.769 7.37362 75.8002
13 -4.71043 -691.332 1632.25
14 -402.362 126.438 -1469.46
15 -263.384 207.113 -1828.31
16 -681.043 523.837 -2052.29
17 447.288 193.171 518.716
18 370.853 1389.87 -1972.9
19 189.536 -713.051 2183.3
20 416.836 290.726 -642.782
21 82.2814 200.572 223.984
22 324.587 1662.65 -2804.45
23 190.022 -95.6731 1551.53
24 422.824 1430.99 -2005.55
25 461.039 515.392 -172.542
26 -150.992 -799.159 1222.36
27 376.927 -247.063 2277.8
28 -88.5185 -247.677 505.009
29 1.94706 -367.222 1312.13
30 -924.416 -621.825 -1280.51
31 226.544 967.402 -1331.71
32 -343.671 86.3459 -517.848
33 -316.353 -268.924 867.399
34 -45.63 -924.415 1794.76
35 -508.902 453.372 -1085
36 92.7412 -964.316 1850.22
37 -215.664 834.955 -2315.38
38 433.515 381.598 -871.95
39 168.476 -240.28 2269.12
40 1369.05 320.664 1536.89
41 539.308 433.172 524.619
42 -838.645 -405.818 -1438.12
43 -368.113 -5.34761 -1129.6
44 43.6203 13.2598 136.465
45 -452.448 -216.627 476.756
46 -351.528 -465.593 419.708
47 -329.755 -272.291 879.16
48 994.385 1378.41 -294.407
49 367.448 159.283 -68.0896
50 -418.849 -153.157 750.128
51 154.093 52.537 -684.5
52 139.658 -915.31 2102.88
53 681.221 -24.5332 443.761
54 306.366 592.783 -907.323
55 -752.394 -467.674 -1098.05
56 16.93 -130.361 7.77986
57 720.958 338.935 373.056
58 -323.405 -218.433 24.8766
59 -176.573 139.271 -756.563
60 -202.896 -385.299 -666.621
